# vtk DataFile Version 3.0
#This file was generated by the deal.II library on 2023/3/28 at 23:04:29
ASCII
DATASET UNSTRUCTURED_GRID

POINTS 128 double
0 0 0
0.0075 0 0
0 0.01 0
0.0075 0.01 0
0.0075 0 0
0.015 0 0
0.0075 0.01 0
0.015 0.01 0
0.015 0 0
0.0225 0 0
0.015 0.01 0
0.0225 0.01 0
0.0225 0 0
0.03 0 0
0.0225 0.01 0
0.03 0.01 0
0 0.01 0
0.0075 0.01 0
0 0.02 0
0.0075 0.02 0
0.0075 0.01 0
0.015 0.01 0
0.0075 0.02 0
0.015 0.02 0
0.015 0.01 0
0.0225 0.01 0
0.015 0.02 0
0.0225 0.02 0
0.0225 0.01 0
0.03 0.01 0
0.0225 0.02 0
0.03 0.02 0
0 0.02 0
0.0075 0.02 0
0 0.03 0
0.0075 0.03 0
0.0075 0.02 0
0.015 0.02 0
0.0075 0.03 0
0.015 0.03 0
0.015 0.02 0
0.0225 0.02 0
0.015 0.03 0
0.0225 0.03 0
0.0225 0.02 0
0.03 0.02 0
0.0225 0.03 0
0.03 0.03 0
0 0.03 0
0.0075 0.03 0
0 0.04 0
0.0075 0.04 0
0.0075 0.03 0
0.015 0.03 0
0.0075 0.04 0
0.015 0.04 0
0.015 0.03 0
0.0225 0.03 0
0.015 0.04 0
0.0225 0.04 0
0.0225 0.03 0
0.03 0.03 0
0.0225 0.04 0
0.03 0.04 0
0 0.04 0
0.0075 0.04 0
0 0.05 0
0.0075 0.05 0
0.0075 0.04 0
0.015 0.04 0
0.0075 0.05 0
0.015 0.05 0
0.015 0.04 0
0.0225 0.04 0
0.015 0.05 0
0.0225 0.05 0
0.0225 0.04 0
0.03 0.04 0
0.0225 0.05 0
0.03 0.05 0
0 0.05 0
0.0075 0.05 0
0 0.06 0
0.0075 0.06 0
0.0075 0.05 0
0.015 0.05 0
0.0075 0.06 0
0.015 0.06 0
0.015 0.05 0
0.0225 0.05 0
0.015 0.06 0
0.0225 0.06 0
0.0225 0.05 0
0.03 0.05 0
0.0225 0.06 0
0.03 0.06 0
0 0.06 0
0.0075 0.06 0
0 0.07 0
0.0075 0.07 0
0.0075 0.06 0
0.015 0.06 0
0.0075 0.07 0
0.015 0.07 0
0.015 0.06 0
0.0225 0.06 0
0.015 0.07 0
0.0225 0.07 0
0.0225 0.06 0
0.03 0.06 0
0.0225 0.07 0
0.03 0.07 0
0 0.07 0
0.0075 0.07 0
0 0.08 0
0.0075 0.08 0
0.0075 0.07 0
0.015 0.07 0
0.0075 0.08 0
0.015 0.08 0
0.015 0.07 0
0.0225 0.07 0
0.015 0.08 0
0.0225 0.08 0
0.0225 0.07 0
0.03 0.07 0
0.0225 0.08 0
0.03 0.08 0

CELLS 32 160
4	0	1	3	2
4	4	5	7	6
4	8	9	11	10
4	12	13	15	14
4	16	17	19	18
4	20	21	23	22
4	24	25	27	26
4	28	29	31	30
4	32	33	35	34
4	36	37	39	38
4	40	41	43	42
4	44	45	47	46
4	48	49	51	50
4	52	53	55	54
4	56	57	59	58
4	60	61	63	62
4	64	65	67	66
4	68	69	71	70
4	72	73	75	74
4	76	77	79	78
4	80	81	83	82
4	84	85	87	86
4	88	89	91	90
4	92	93	95	94
4	96	97	99	98
4	100	101	103	102
4	104	105	107	106
4	108	109	111	110
4	112	113	115	114
4	116	117	119	118
4	120	121	123	122
4	124	125	127	126

CELL_TYPES 32
 9 9 9 9 9 9 9 9 9 9 9 9 9 9 9 9 9 9 9 9 9 9 9 9 9 9 9 9 9 9 9 9
POINT_DATA 128
SCALARS D double 1
LOOKUP_TABLE default
300 300.75 302.272 302.348 300.75 301.5 302.348 302.658 301.5 302.25 302.658 302.969 302.25 303 302.969 303.044 302.272 302.348 303.68 303.725 302.348 302.658 303.725 303.817 302.658 302.969 303.817 303.909 302.969 303.044 303.909 303.954 303.68 303.725 304.93 304.942 303.725 303.817 304.942 304.975 303.817 303.909 304.975 305.008 303.909 303.954 305.008 305.021 304.93 304.942 306.11 306.117 304.942 304.975 306.117 306.134 304.975 305.008 306.134 306.15 305.008 305.021 306.15 306.158 306.11 306.117 307.256 307.267 306.117 306.134 307.267 307.292 306.134 306.15 307.292 307.318 306.15 306.158 307.318 307.328 307.256 307.267 308.35 308.38 307.267 307.292 308.38 308.452 307.292 307.318 308.452 308.518 307.318 307.328 308.518 308.555 308.35 308.38 309.316 309.389 308.38 308.452 309.389 309.592 308.452 308.518 309.592 309.851 308.518 308.555 309.851 309.891 309.316 309.389 310 310.139 309.389 309.592 310.139 310.558 309.592 309.851 310.558 311.255 309.851 309.891 311.255 312.232 
