# vtk DataFile Version 3.0
#This file was generated by the deal.II library on 2023/3/28 at 23:25:12
ASCII
DATASET UNSTRUCTURED_GRID

POINTS 512 double
0 0 0
0.01 0 0
0 0.01 0
0.01 0.01 0
0 0 0.01
0.01 0 0.01
0 0.01 0.01
0.01 0.01 0.01
0.01 0 0
0.02 0 0
0.01 0.01 0
0.02 0.01 0
0.01 0 0.01
0.02 0 0.01
0.01 0.01 0.01
0.02 0.01 0.01
0.02 0 0
0.03 0 0
0.02 0.01 0
0.03 0.01 0
0.02 0 0.01
0.03 0 0.01
0.02 0.01 0.01
0.03 0.01 0.01
0.03 0 0
0.04 0 0
0.03 0.01 0
0.04 0.01 0
0.03 0 0.01
0.04 0 0.01
0.03 0.01 0.01
0.04 0.01 0.01
0 0.01 0
0.01 0.01 0
0 0.02 0
0.01 0.02 0
0 0.01 0.01
0.01 0.01 0.01
0 0.02 0.01
0.01 0.02 0.01
0.01 0.01 0
0.02 0.01 0
0.01 0.02 0
0.02 0.02 0
0.01 0.01 0.01
0.02 0.01 0.01
0.01 0.02 0.01
0.02 0.02 0.01
0.02 0.01 0
0.03 0.01 0
0.02 0.02 0
0.03 0.02 0
0.02 0.01 0.01
0.03 0.01 0.01
0.02 0.02 0.01
0.03 0.02 0.01
0.03 0.01 0
0.04 0.01 0
0.03 0.02 0
0.04 0.02 0
0.03 0.01 0.01
0.04 0.01 0.01
0.03 0.02 0.01
0.04 0.02 0.01
0 0.02 0
0.01 0.02 0
0 0.03 0
0.01 0.03 0
0 0.02 0.01
0.01 0.02 0.01
0 0.03 0.01
0.01 0.03 0.01
0.01 0.02 0
0.02 0.02 0
0.01 0.03 0
0.02 0.03 0
0.01 0.02 0.01
0.02 0.02 0.01
0.01 0.03 0.01
0.02 0.03 0.01
0.02 0.02 0
0.03 0.02 0
0.02 0.03 0
0.03 0.03 0
0.02 0.02 0.01
0.03 0.02 0.01
0.02 0.03 0.01
0.03 0.03 0.01
0.03 0.02 0
0.04 0.02 0
0.03 0.03 0
0.04 0.03 0
0.03 0.02 0.01
0.04 0.02 0.01
0.03 0.03 0.01
0.04 0.03 0.01
0 0.03 0
0.01 0.03 0
0 0.04 0
0.01 0.04 0
0 0.03 0.01
0.01 0.03 0.01
0 0.04 0.01
0.01 0.04 0.01
0.01 0.03 0
0.02 0.03 0
0.01 0.04 0
0.02 0.04 0
0.01 0.03 0.01
0.02 0.03 0.01
0.01 0.04 0.01
0.02 0.04 0.01
0.02 0.03 0
0.03 0.03 0
0.02 0.04 0
0.03 0.04 0
0.02 0.03 0.01
0.03 0.03 0.01
0.02 0.04 0.01
0.03 0.04 0.01
0.03 0.03 0
0.04 0.03 0
0.03 0.04 0
0.04 0.04 0
0.03 0.03 0.01
0.04 0.03 0.01
0.03 0.04 0.01
0.04 0.04 0.01
0 0.04 0
0.01 0.04 0
0 0.05 0
0.01 0.05 0
0 0.04 0.01
0.01 0.04 0.01
0 0.05 0.01
0.01 0.05 0.01
0.01 0.04 0
0.02 0.04 0
0.01 0.05 0
0.02 0.05 0
0.01 0.04 0.01
0.02 0.04 0.01
0.01 0.05 0.01
0.02 0.05 0.01
0.02 0.04 0
0.03 0.04 0
0.02 0.05 0
0.03 0.05 0
0.02 0.04 0.01
0.03 0.04 0.01
0.02 0.05 0.01
0.03 0.05 0.01
0.03 0.04 0
0.04 0.04 0
0.03 0.05 0
0.04 0.05 0
0.03 0.04 0.01
0.04 0.04 0.01
0.03 0.05 0.01
0.04 0.05 0.01
0 0.05 0
0.01 0.05 0
0 0.06 0
0.01 0.06 0
0 0.05 0.01
0.01 0.05 0.01
0 0.06 0.01
0.01 0.06 0.01
0.01 0.05 0
0.02 0.05 0
0.01 0.06 0
0.02 0.06 0
0.01 0.05 0.01
0.02 0.05 0.01
0.01 0.06 0.01
0.02 0.06 0.01
0.02 0.05 0
0.03 0.05 0
0.02 0.06 0
0.03 0.06 0
0.02 0.05 0.01
0.03 0.05 0.01
0.02 0.06 0.01
0.03 0.06 0.01
0.03 0.05 0
0.04 0.05 0
0.03 0.06 0
0.04 0.06 0
0.03 0.05 0.01
0.04 0.05 0.01
0.03 0.06 0.01
0.04 0.06 0.01
0 0.06 0
0.01 0.06 0
0 0.07 0
0.01 0.07 0
0 0.06 0.01
0.01 0.06 0.01
0 0.07 0.01
0.01 0.07 0.01
0.01 0.06 0
0.02 0.06 0
0.01 0.07 0
0.02 0.07 0
0.01 0.06 0.01
0.02 0.06 0.01
0.01 0.07 0.01
0.02 0.07 0.01
0.02 0.06 0
0.03 0.06 0
0.02 0.07 0
0.03 0.07 0
0.02 0.06 0.01
0.03 0.06 0.01
0.02 0.07 0.01
0.03 0.07 0.01
0.03 0.06 0
0.04 0.06 0
0.03 0.07 0
0.04 0.07 0
0.03 0.06 0.01
0.04 0.06 0.01
0.03 0.07 0.01
0.04 0.07 0.01
0 0.07 0
0.01 0.07 0
0 0.08 0
0.01 0.08 0
0 0.07 0.01
0.01 0.07 0.01
0 0.08 0.01
0.01 0.08 0.01
0.01 0.07 0
0.02 0.07 0
0.01 0.08 0
0.02 0.08 0
0.01 0.07 0.01
0.02 0.07 0.01
0.01 0.08 0.01
0.02 0.08 0.01
0.02 0.07 0
0.03 0.07 0
0.02 0.08 0
0.03 0.08 0
0.02 0.07 0.01
0.03 0.07 0.01
0.02 0.08 0.01
0.03 0.08 0.01
0.03 0.07 0
0.04 0.07 0
0.03 0.08 0
0.04 0.08 0
0.03 0.07 0.01
0.04 0.07 0.01
0.03 0.08 0.01
0.04 0.08 0.01
0 0 0.01
0.01 0 0.01
0 0.01 0.01
0.01 0.01 0.01
0 0 0.02
0.01 0 0.02
0 0.01 0.02
0.01 0.01 0.02
0.01 0 0.01
0.02 0 0.01
0.01 0.01 0.01
0.02 0.01 0.01
0.01 0 0.02
0.02 0 0.02
0.01 0.01 0.02
0.02 0.01 0.02
0.02 0 0.01
0.03 0 0.01
0.02 0.01 0.01
0.03 0.01 0.01
0.02 0 0.02
0.03 0 0.02
0.02 0.01 0.02
0.03 0.01 0.02
0.03 0 0.01
0.04 0 0.01
0.03 0.01 0.01
0.04 0.01 0.01
0.03 0 0.02
0.04 0 0.02
0.03 0.01 0.02
0.04 0.01 0.02
0 0.01 0.01
0.01 0.01 0.01
0 0.02 0.01
0.01 0.02 0.01
0 0.01 0.02
0.01 0.01 0.02
0 0.02 0.02
0.01 0.02 0.02
0.01 0.01 0.01
0.02 0.01 0.01
0.01 0.02 0.01
0.02 0.02 0.01
0.01 0.01 0.02
0.02 0.01 0.02
0.01 0.02 0.02
0.02 0.02 0.02
0.02 0.01 0.01
0.03 0.01 0.01
0.02 0.02 0.01
0.03 0.02 0.01
0.02 0.01 0.02
0.03 0.01 0.02
0.02 0.02 0.02
0.03 0.02 0.02
0.03 0.01 0.01
0.04 0.01 0.01
0.03 0.02 0.01
0.04 0.02 0.01
0.03 0.01 0.02
0.04 0.01 0.02
0.03 0.02 0.02
0.04 0.02 0.02
0 0.02 0.01
0.01 0.02 0.01
0 0.03 0.01
0.01 0.03 0.01
0 0.02 0.02
0.01 0.02 0.02
0 0.03 0.02
0.01 0.03 0.02
0.01 0.02 0.01
0.02 0.02 0.01
0.01 0.03 0.01
0.02 0.03 0.01
0.01 0.02 0.02
0.02 0.02 0.02
0.01 0.03 0.02
0.02 0.03 0.02
0.02 0.02 0.01
0.03 0.02 0.01
0.02 0.03 0.01
0.03 0.03 0.01
0.02 0.02 0.02
0.03 0.02 0.02
0.02 0.03 0.02
0.03 0.03 0.02
0.03 0.02 0.01
0.04 0.02 0.01
0.03 0.03 0.01
0.04 0.03 0.01
0.03 0.02 0.02
0.04 0.02 0.02
0.03 0.03 0.02
0.04 0.03 0.02
0 0.03 0.01
0.01 0.03 0.01
0 0.04 0.01
0.01 0.04 0.01
0 0.03 0.02
0.01 0.03 0.02
0 0.04 0.02
0.01 0.04 0.02
0.01 0.03 0.01
0.02 0.03 0.01
0.01 0.04 0.01
0.02 0.04 0.01
0.01 0.03 0.02
0.02 0.03 0.02
0.01 0.04 0.02
0.02 0.04 0.02
0.02 0.03 0.01
0.03 0.03 0.01
0.02 0.04 0.01
0.03 0.04 0.01
0.02 0.03 0.02
0.03 0.03 0.02
0.02 0.04 0.02
0.03 0.04 0.02
0.03 0.03 0.01
0.04 0.03 0.01
0.03 0.04 0.01
0.04 0.04 0.01
0.03 0.03 0.02
0.04 0.03 0.02
0.03 0.04 0.02
0.04 0.04 0.02
0 0.04 0.01
0.01 0.04 0.01
0 0.05 0.01
0.01 0.05 0.01
0 0.04 0.02
0.01 0.04 0.02
0 0.05 0.02
0.01 0.05 0.02
0.01 0.04 0.01
0.02 0.04 0.01
0.01 0.05 0.01
0.02 0.05 0.01
0.01 0.04 0.02
0.02 0.04 0.02
0.01 0.05 0.02
0.02 0.05 0.02
0.02 0.04 0.01
0.03 0.04 0.01
0.02 0.05 0.01
0.03 0.05 0.01
0.02 0.04 0.02
0.03 0.04 0.02
0.02 0.05 0.02
0.03 0.05 0.02
0.03 0.04 0.01
0.04 0.04 0.01
0.03 0.05 0.01
0.04 0.05 0.01
0.03 0.04 0.02
0.04 0.04 0.02
0.03 0.05 0.02
0.04 0.05 0.02
0 0.05 0.01
0.01 0.05 0.01
0 0.06 0.01
0.01 0.06 0.01
0 0.05 0.02
0.01 0.05 0.02
0 0.06 0.02
0.01 0.06 0.02
0.01 0.05 0.01
0.02 0.05 0.01
0.01 0.06 0.01
0.02 0.06 0.01
0.01 0.05 0.02
0.02 0.05 0.02
0.01 0.06 0.02
0.02 0.06 0.02
0.02 0.05 0.01
0.03 0.05 0.01
0.02 0.06 0.01
0.03 0.06 0.01
0.02 0.05 0.02
0.03 0.05 0.02
0.02 0.06 0.02
0.03 0.06 0.02
0.03 0.05 0.01
0.04 0.05 0.01
0.03 0.06 0.01
0.04 0.06 0.01
0.03 0.05 0.02
0.04 0.05 0.02
0.03 0.06 0.02
0.04 0.06 0.02
0 0.06 0.01
0.01 0.06 0.01
0 0.07 0.01
0.01 0.07 0.01
0 0.06 0.02
0.01 0.06 0.02
0 0.07 0.02
0.01 0.07 0.02
0.01 0.06 0.01
0.02 0.06 0.01
0.01 0.07 0.01
0.02 0.07 0.01
0.01 0.06 0.02
0.02 0.06 0.02
0.01 0.07 0.02
0.02 0.07 0.02
0.02 0.06 0.01
0.03 0.06 0.01
0.02 0.07 0.01
0.03 0.07 0.01
0.02 0.06 0.02
0.03 0.06 0.02
0.02 0.07 0.02
0.03 0.07 0.02
0.03 0.06 0.01
0.04 0.06 0.01
0.03 0.07 0.01
0.04 0.07 0.01
0.03 0.06 0.02
0.04 0.06 0.02
0.03 0.07 0.02
0.04 0.07 0.02
0 0.07 0.01
0.01 0.07 0.01
0 0.08 0.01
0.01 0.08 0.01
0 0.07 0.02
0.01 0.07 0.02
0 0.08 0.02
0.01 0.08 0.02
0.01 0.07 0.01
0.02 0.07 0.01
0.01 0.08 0.01
0.02 0.08 0.01
0.01 0.07 0.02
0.02 0.07 0.02
0.01 0.08 0.02
0.02 0.08 0.02
0.02 0.07 0.01
0.03 0.07 0.01
0.02 0.08 0.01
0.03 0.08 0.01
0.02 0.07 0.02
0.03 0.07 0.02
0.02 0.08 0.02
0.03 0.08 0.02
0.03 0.07 0.01
0.04 0.07 0.01
0.03 0.08 0.01
0.04 0.08 0.01
0.03 0.07 0.02
0.04 0.07 0.02
0.03 0.08 0.02
0.04 0.08 0.02

CELLS 64 576
8	0	1	3	2	4	5	7	6
8	8	9	11	10	12	13	15	14
8	16	17	19	18	20	21	23	22
8	24	25	27	26	28	29	31	30
8	32	33	35	34	36	37	39	38
8	40	41	43	42	44	45	47	46
8	48	49	51	50	52	53	55	54
8	56	57	59	58	60	61	63	62
8	64	65	67	66	68	69	71	70
8	72	73	75	74	76	77	79	78
8	80	81	83	82	84	85	87	86
8	88	89	91	90	92	93	95	94
8	96	97	99	98	100	101	103	102
8	104	105	107	106	108	109	111	110
8	112	113	115	114	116	117	119	118
8	120	121	123	122	124	125	127	126
8	128	129	131	130	132	133	135	134
8	136	137	139	138	140	141	143	142
8	144	145	147	146	148	149	151	150
8	152	153	155	154	156	157	159	158
8	160	161	163	162	164	165	167	166
8	168	169	171	170	172	173	175	174
8	176	177	179	178	180	181	183	182
8	184	185	187	186	188	189	191	190
8	192	193	195	194	196	197	199	198
8	200	201	203	202	204	205	207	206
8	208	209	211	210	212	213	215	214
8	216	217	219	218	220	221	223	222
8	224	225	227	226	228	229	231	230
8	232	233	235	234	236	237	239	238
8	240	241	243	242	244	245	247	246
8	248	249	251	250	252	253	255	254
8	256	257	259	258	260	261	263	262
8	264	265	267	266	268	269	271	270
8	272	273	275	274	276	277	279	278
8	280	281	283	282	284	285	287	286
8	288	289	291	290	292	293	295	294
8	296	297	299	298	300	301	303	302
8	304	305	307	306	308	309	311	310
8	312	313	315	314	316	317	319	318
8	320	321	323	322	324	325	327	326
8	328	329	331	330	332	333	335	334
8	336	337	339	338	340	341	343	342
8	344	345	347	346	348	349	351	350
8	352	353	355	354	356	357	359	358
8	360	361	363	362	364	365	367	366
8	368	369	371	370	372	373	375	374
8	376	377	379	378	380	381	383	382
8	384	385	387	386	388	389	391	390
8	392	393	395	394	396	397	399	398
8	400	401	403	402	404	405	407	406
8	408	409	411	410	412	413	415	414
8	416	417	419	418	420	421	423	422
8	424	425	427	426	428	429	431	430
8	432	433	435	434	436	437	439	438
8	440	441	443	442	444	445	447	446
8	448	449	451	450	452	453	455	454
8	456	457	459	458	460	461	463	462
8	464	465	467	466	468	469	471	470
8	472	473	475	474	476	477	479	478
8	480	481	483	482	484	485	487	486
8	488	489	491	490	492	493	495	494
8	496	497	499	498	500	501	503	502
8	504	505	507	506	508	509	511	510

CELL_TYPES 64
 12 12 12 12 12 12 12 12 12 12 12 12 12 12 12 12 12 12 12 12 12 12 12 12 12 12 12 12 12 12 12 12 12 12 12 12 12 12 12 12 12 12 12 12 12 12 12 12 12 12 12 12 12 12 12 12 12 12 12 12 12 12 12 12
POINT_DATA 512
SCALARS D double 1
LOOKUP_TABLE default
300 304.614 301 304.791 301 304.655 302 305.076 304.614 307.359 304.791 307.763 304.655 307.586 305.076 307.648 307.359 309.646 307.763 309.82 307.586 309.69 307.648 310.112 309.646 310 309.82 311.033 309.69 311.033 310.112 312.066 301 304.791 302 305.604 302 305.076 303 305.695 304.791 307.763 305.604 308.234 305.076 307.648 305.695 308.414 307.763 309.82 308.234 310.671 307.648 310.112 308.414 310.739 309.82 311.033 310.671 312.072 310.112 312.066 310.739 313.102 302 305.604 303 306.43 303 305.695 304 306.639 305.604 308.234 306.43 309.159 305.695 308.414 306.639 309.145 308.234 310.671 309.159 311.478 308.414 310.739 309.145 311.706 310.671 312.072 311.478 313.092 310.739 313.102 311.706 314.132 303 306.43 304 307.377 304 306.639 305 307.551 306.43 309.159 307.377 310.036 306.639 309.145 307.551 310.077 309.159 311.478 310.036 312.43 309.145 311.706 310.077 312.628 311.478 313.092 312.43 314.132 311.706 314.132 312.628 315.168 304 307.377 305 308.345 305 307.551 306 308.438 307.377 310.036 308.345 310.88 307.551 310.077 308.438 311.021 310.036 312.43 310.88 313.424 310.077 312.628 311.021 313.532 312.43 314.132 313.424 315.164 312.628 315.168 313.532 316.204 305 308.345 306 309.127 306 308.438 307 309.391 308.345 310.88 309.127 311.831 308.438 311.021 309.391 311.736 310.88 313.424 311.831 314.228 311.021 313.532 311.736 314.514 313.424 315.164 314.228 316.204 313.532 316.204 314.514 317.234 306 309.127 307 309.962 307 309.391 308 309.998 309.127 311.831 309.962 312.284 309.391 311.736 309.998 312.517 311.831 314.228 312.284 315.092 311.736 314.514 312.517 315.127 314.228 316.204 315.092 317.237 314.514 317.234 315.127 318.266 307 309.962 308 310.12 308 309.998 309 310.421 309.962 312.284 310.12 312.703 309.998 312.517 310.421 312.562 312.284 315.092 312.703 315.253 312.517 315.127 312.562 315.566 315.092 317.237 315.253 318.263 315.127 318.266 315.566 319.296 301 304.655 302 305.076 302 304.956 303 305.117 304.655 307.586 305.076 307.648 304.956 307.469 305.117 307.862 307.586 309.69 307.648 310.112 307.469 309.994 307.862 310.161 309.69 311.033 310.112 312.066 309.994 312.066 310.161 313.092 302 305.076 303 305.695 303 305.117 304 305.946 305.076 307.648 305.695 308.414 305.117 307.862 305.946 308.339 307.648 310.112 308.414 310.739 307.862 310.161 308.339 311.003 310.112 312.066 310.739 313.102 310.161 313.092 311.003 314.132 303 305.695 304 306.639 304 305.946 305 306.766 305.695 308.414 306.639 309.145 305.946 308.339 306.766 309.26 308.414 310.739 309.145 311.706 308.339 311.003 309.26 311.81 310.739 313.102 311.706 314.132 311.003 314.132 311.81 315.164 304 306.639 305 307.551 305 306.766 306 307.715 306.639 309.145 307.551 310.077 306.766 309.26 307.715 310.141 309.145 311.706 310.077 312.628 309.26 311.81 310.141 312.791 311.706 314.132 312.628 315.168 311.81 315.164 312.791 316.204 305 307.551 306 308.438 306 307.715 307 308.661 307.551 310.077 308.438 311.021 307.715 310.141 308.661 311 310.077 312.628 311.021 313.532 310.141 312.791 311 313.766 312.628 315.168 313.532 316.204 312.791 316.204 313.766 317.237 306 308.438 307 309.391 307 308.661 308 309.465 308.438 311.021 309.391 311.736 308.661 311 309.465 311.935 311.021 313.532 311.736 314.514 311 313.766 311.935 314.589 313.532 316.204 314.514 317.234 313.766 317.237 314.589 318.263 307 309.391 308 309.998 308 309.465 309 310.285 309.391 311.736 309.998 312.517 309.465 311.935 310.285 312.38 311.736 314.514 312.517 315.127 311.935 314.589 312.38 315.421 314.514 317.234 315.127 318.266 314.589 318.263 315.421 319.296 308 309.998 309 310.421 309 310.285 310 310.462 309.998 312.517 310.421 312.562 310.285 312.38 310.462 312.807 312.517 315.127 312.562 315.566 312.38 315.421 312.807 315.601 315.127 318.266 315.566 319.296 315.421 319.296 315.601 320.329 
